<?xml version="1.0" encoding="UTF-8"?>

<!-- generated on 02/24/20 08:44:15 by Eclipse SUMO GUI Version 1.3.1
<configuration xmlns:xsi="http://www.w3.org/2001/XMLSchema-instance" xsi:noNamespaceSchemaLocation="http://sumo.dlr.de/xsd/sumoConfiguration.xsd">

    <input>
        <net-file value="cfg/freeway.net.xml"/>
        <route-files value="cfg/freeway.rou.xml"/>
    </input>

    <output>
        <tripinfo-output value="result/tripinfo.xml"/>
    </output>

    <time>
        <begin value="0"/>
        <end value="81600"/>
        <step-length value="0.01"/>
    </time>

    <processing>
        <collision.action value="none"/>
        <collision.stoptime value="0"/>
    </processing>

    <emissions>
        <device.emissions.probability value="1"/>
    </emissions>

    <traci_server>
        <remote-port value="50540"/>
    </traci_server>

    <gui_only>
        <tracker-interval value="0.01"/>
    </gui_only>

</configuration>
-->

<tripinfos xmlns:xsi="http://www.w3.org/2001/XMLSchema-instance" xsi:noNamespaceSchemaLocation="http://sumo.dlr.de/xsd/tripinfo_file.xsd">
    <tripinfo id="a4i_HV.0" depart="0.76" departLane="bi_0" departPos="4.60" departSpeed="10.00" departDelay="0.00" arrival="174.31" arrivalLane="ci_0" arrivalPos="300.00" arrivalSpeed="15.00" duration="173.55" routeLength="2595.60" waitingTime="0.00" waitingCount="0" stopTime="0.00" timeLoss="0.51" rerouteNo="0" devices="tripinfo_a4i_HV.0 emissions_a4i_HV.0" vType="HV" speedFactor="1.06" vaporized="">
        <emissions CO_abs="2433.177073" CO2_abs="370385.787106" HC_abs="19.344655" PMx_abs="5.229334" NOx_abs="137.300995" fuel_abs="159.212739" electricity_abs="0"/>
    </tripinfo>
    <tripinfo id="a4i_HV.1" depart="5.34" departLane="bi_0" departPos="4.60" departSpeed="10.00" departDelay="0.00" arrival="178.86" arrivalLane="ci_0" arrivalPos="300.00" arrivalSpeed="15.00" duration="173.52" routeLength="2595.60" waitingTime="0.00" waitingCount="0" stopTime="0.00" timeLoss="0.48" rerouteNo="0" devices="tripinfo_a4i_HV.1 emissions_a4i_HV.1" vType="HV" speedFactor="0.45" vaporized="">
        <emissions CO_abs="615.705538" CO2_abs="399194.003665" HC_abs="5.620341" PMx_abs="2.904862" NOx_abs="124.864819" fuel_abs="171.598084" electricity_abs="0"/>
    </tripinfo>
    <tripinfo id="a4i_CAV.0" depart="8.36" departLane="bi_0" departPos="4.60" departSpeed="10.00" departDelay="0.00" arrival="181.12" arrivalLane="ci_0" arrivalPos="300.00" arrivalSpeed="15.00" duration="172.76" routeLength="2595.60" waitingTime="0.00" waitingCount="0" stopTime="0.00" timeLoss="-0.28" rerouteNo="0" devices="tripinfo_a4i_CAV.0 emissions_a4i_CAV.0" vType="CAV" speedFactor="0.45" vaporized="">
        <emissions CO_abs="749.869900" CO2_abs="117078.890029" HC_abs="6.017433" PMx_abs="1.594457" NOx_abs="43.042686" fuel_abs="50.327193" electricity_abs="0"/>
    </tripinfo>
    <tripinfo id="a4i_HV.2" depart="9.66" departLane="bi_0" departPos="4.60" departSpeed="10.00" departDelay="0.43" arrival="184.00" arrivalLane="ci_0" arrivalPos="300.00" arrivalSpeed="14.99" duration="174.34" routeLength="2595.60" waitingTime="0.00" waitingCount="0" stopTime="0.00" timeLoss="1.30" rerouteNo="0" devices="tripinfo_a4i_HV.2 emissions_a4i_HV.2" vType="HV" speedFactor="1.08" vaporized="">
        <emissions CO_abs="2628.812452" CO2_abs="379190.791286" HC_abs="20.464622" PMx_abs="5.426860" NOx_abs="141.281273" fuel_abs="162.997614" electricity_abs="0"/>
    </tripinfo>
    <tripinfo id="a4i_HV.3" depart="11.38" departLane="bi_0" departPos="4.60" departSpeed="10.00" departDelay="1.54" arrival="186.60" arrivalLane="ci_0" arrivalPos="300.00" arrivalSpeed="15.00" duration="175.22" routeLength="2595.60" waitingTime="0.00" waitingCount="0" stopTime="0.00" timeLoss="2.18" rerouteNo="0" devices="tripinfo_a4i_HV.3 emissions_a4i_HV.3" vType="HV" speedFactor="0.45" vaporized="">
        <emissions CO_abs="862.292271" CO2_abs="335521.803092" HC_abs="6.759753" PMx_abs="2.704418" NOx_abs="107.409246" fuel_abs="144.227761" electricity_abs="0"/>
    </tripinfo>
    <tripinfo id="a4i_CAV.1" depart="13.72" departLane="bi_0" departPos="4.60" departSpeed="10.00" departDelay="0.00" arrival="188.77" arrivalLane="ci_0" arrivalPos="300.00" arrivalSpeed="14.99" duration="175.05" routeLength="2595.60" waitingTime="0.00" waitingCount="0" stopTime="0.00" timeLoss="2.02" rerouteNo="0" devices="tripinfo_a4i_CAV.1 emissions_a4i_CAV.1" vType="CAV" speedFactor="0.45" vaporized="">
        <emissions CO_abs="773.440568" CO2_abs="275077.572144" HC_abs="6.437346" PMx_abs="2.375501" NOx_abs="89.493240" fuel_abs="118.245020" electricity_abs="0"/>
    </tripinfo>
    <tripinfo id="a4i_CAV.2" depart="15.41" departLane="bi_0" departPos="4.60" departSpeed="10.00" departDelay="0.30" arrival="191.02" arrivalLane="ci_0" arrivalPos="300.00" arrivalSpeed="15.01" duration="175.61" routeLength="2595.60" waitingTime="0.00" waitingCount="0" stopTime="0.00" timeLoss="2.57" rerouteNo="0" devices="tripinfo_a4i_CAV.2 emissions_a4i_CAV.2" vType="CAV" speedFactor="0.45" vaporized="">
        <emissions CO_abs="1012.969749" CO2_abs="235977.105286" HC_abs="7.828435" PMx_abs="2.392744" NOx_abs="79.938342" fuel_abs="101.437061" electricity_abs="0"/>
    </tripinfo>
    <tripinfo id="a4i_CAV.3" depart="18.61" departLane="bi_0" departPos="4.60" departSpeed="10.00" departDelay="0.00" arrival="193.33" arrivalLane="ci_0" arrivalPos="300.00" arrivalSpeed="15.03" duration="174.72" routeLength="2595.60" waitingTime="0.00" waitingCount="0" stopTime="0.00" timeLoss="1.69" rerouteNo="0" devices="tripinfo_a4i_CAV.3 emissions_a4i_CAV.3" vType="CAV" speedFactor="0.45" vaporized="">
        <emissions CO_abs="956.314922" CO2_abs="217512.925212" HC_abs="7.476054" PMx_abs="2.269049" NOx_abs="74.177793" fuel_abs="93.499994" electricity_abs="0"/>
    </tripinfo>
    <tripinfo id="a4i_CAV.4" depart="21.21" departLane="bi_0" departPos="4.60" departSpeed="10.00" departDelay="0.00" arrival="195.70" arrivalLane="ci_0" arrivalPos="300.00" arrivalSpeed="15.04" duration="174.49" routeLength="2595.60" waitingTime="0.00" waitingCount="0" stopTime="0.00" timeLoss="1.45" rerouteNo="0" devices="tripinfo_a4i_CAV.4 emissions_a4i_CAV.4" vType="CAV" speedFactor="0.45" vaporized="">
        <emissions CO_abs="1230.491238" CO2_abs="224827.721893" HC_abs="9.148250" PMx_abs="2.575548" NOx_abs="78.592993" fuel_abs="96.644194" electricity_abs="0"/>
    </tripinfo>
    <tripinfo id="a4i_CAV.5" depart="23.51" departLane="bi_0" departPos="4.60" departSpeed="10.00" departDelay="0.00" arrival="198.12" arrivalLane="ci_0" arrivalPos="300.00" arrivalSpeed="15.03" duration="174.61" routeLength="2595.60" waitingTime="0.00" waitingCount="0" stopTime="0.00" timeLoss="1.57" rerouteNo="0" devices="tripinfo_a4i_CAV.5 emissions_a4i_CAV.5" vType="CAV" speedFactor="0.45" vaporized="">
        <emissions CO_abs="1321.680360" CO2_abs="222552.461254" HC_abs="9.660228" PMx_abs="2.627833" NOx_abs="78.434913" fuel_abs="95.666131" electricity_abs="0"/>
    </tripinfo>
    <tripinfo id="a4i_HV.4" depart="24.80" departLane="bi_0" departPos="4.60" departSpeed="10.00" departDelay="0.59" arrival="200.04" arrivalLane="ci_0" arrivalPos="300.00" arrivalSpeed="14.99" duration="175.24" routeLength="2595.60" waitingTime="0.00" waitingCount="0" stopTime="0.00" timeLoss="2.20" rerouteNo="0" devices="tripinfo_a4i_HV.4 emissions_a4i_HV.4" vType="HV" speedFactor="1.09" vaporized="">
        <emissions CO_abs="2680.220000" CO2_abs="381888.596047" HC_abs="20.777347" PMx_abs="5.470075" NOx_abs="142.437762" fuel_abs="164.157294" electricity_abs="0"/>
    </tripinfo>
    <tripinfo id="a4i_HV.5" depart="26.52" departLane="bi_0" departPos="4.60" departSpeed="10.00" departDelay="1.68" arrival="202.64" arrivalLane="ci_0" arrivalPos="300.00" arrivalSpeed="15.01" duration="176.12" routeLength="2595.60" waitingTime="0.00" waitingCount="0" stopTime="0.00" timeLoss="3.08" rerouteNo="0" devices="tripinfo_a4i_HV.5 emissions_a4i_HV.5" vType="HV" speedFactor="0.45" vaporized="">
        <emissions CO_abs="1034.715957" CO2_abs="339553.601173" HC_abs="8.308236" PMx_abs="2.973972" NOx_abs="110.831465" fuel_abs="145.960720" electricity_abs="0"/>
    </tripinfo>
    <tripinfo id="a4i_CAV.6" depart="28.57" departLane="bi_0" departPos="4.60" departSpeed="10.00" departDelay="0.21" arrival="205.00" arrivalLane="ci_0" arrivalPos="300.00" arrivalSpeed="15.01" duration="176.43" routeLength="2595.60" waitingTime="0.00" waitingCount="0" stopTime="0.00" timeLoss="3.39" rerouteNo="0" devices="tripinfo_a4i_CAV.6 emissions_a4i_CAV.6" vType="CAV" speedFactor="0.45" vaporized="">
        <emissions CO_abs="1072.245079" CO2_abs="244561.838303" HC_abs="8.227128" PMx_abs="2.491077" NOx_abs="82.923858" fuel_abs="105.127295" electricity_abs="0"/>
    </tripinfo>
    <tripinfo id="a4i_HV.6" depart="32.46" departLane="bi_0" departPos="4.60" departSpeed="10.00" departDelay="0.00" arrival="206.94" arrivalLane="ci_0" arrivalPos="300.00" arrivalSpeed="14.99" duration="174.48" routeLength="2595.60" waitingTime="0.00" waitingCount="0" stopTime="0.00" timeLoss="1.44" rerouteNo="0" devices="tripinfo_a4i_HV.6 emissions_a4i_HV.6" vType="HV" speedFactor="1.12" vaporized="">
        <emissions CO_abs="2464.203985" CO2_abs="372368.657435" HC_abs="19.540452" PMx_abs="5.247779" NOx_abs="138.072494" fuel_abs="160.065112" electricity_abs="0"/>
    </tripinfo>
    <tripinfo id="a4i_HV.7" depart="33.76" departLane="bi_0" departPos="4.60" departSpeed="10.00" departDelay="0.97" arrival="209.54" arrivalLane="ci_0" arrivalPos="300.00" arrivalSpeed="15.01" duration="175.78" routeLength="2595.60" waitingTime="0.00" waitingCount="0" stopTime="0.00" timeLoss="2.74" rerouteNo="0" devices="tripinfo_a4i_HV.7 emissions_a4i_HV.7" vType="HV" speedFactor="0.45" vaporized="">
        <emissions CO_abs="890.344469" CO2_abs="347818.618891" HC_abs="7.731906" PMx_abs="2.935241" NOx_abs="112.594689" fuel_abs="149.513574" electricity_abs="0"/>
    </tripinfo>
    <tripinfo id="a4i_CAV.7" depart="36.61" departLane="bi_0" departPos="4.60" departSpeed="10.00" departDelay="0.00" arrival="211.84" arrivalLane="ci_0" arrivalPos="300.00" arrivalSpeed="15.00" duration="175.23" routeLength="2595.60" waitingTime="0.00" waitingCount="0" stopTime="0.00" timeLoss="2.19" rerouteNo="0" devices="tripinfo_a4i_CAV.7 emissions_a4i_CAV.7" vType="CAV" speedFactor="0.45" vaporized="">
        <emissions CO_abs="779.161628" CO2_abs="279090.664872" HC_abs="6.744485" PMx_abs="2.459335" NOx_abs="91.228253" fuel_abs="119.970042" electricity_abs="0"/>
    </tripinfo>
    <tripinfo id="a4i_CAV.8" depart="37.91" departLane="bi_0" departPos="4.60" departSpeed="10.00" departDelay="0.69" arrival="214.20" arrivalLane="ci_0" arrivalPos="300.00" arrivalSpeed="15.02" duration="176.29" routeLength="2595.60" waitingTime="0.00" waitingCount="0" stopTime="0.00" timeLoss="3.25" rerouteNo="0" devices="tripinfo_a4i_CAV.8 emissions_a4i_CAV.8" vType="CAV" speedFactor="0.45" vaporized="">
        <emissions CO_abs="965.784371" CO2_abs="244988.029122" HC_abs="7.694051" PMx_abs="2.408105" NOx_abs="82.380641" fuel_abs="105.310543" electricity_abs="0"/>
    </tripinfo>
    <tripinfo id="a4i_CAV.9" depart="39.41" departLane="bi_0" departPos="4.60" departSpeed="10.00" departDelay="1.16" arrival="216.60" arrivalLane="ci_0" arrivalPos="300.00" arrivalSpeed="15.02" duration="177.19" routeLength="2595.60" waitingTime="0.00" waitingCount="0" stopTime="0.00" timeLoss="4.15" rerouteNo="0" devices="tripinfo_a4i_CAV.9 emissions_a4i_CAV.9" vType="CAV" speedFactor="0.45" vaporized="">
        <emissions CO_abs="1221.176661" CO2_abs="233953.569202" HC_abs="9.101732" PMx_abs="2.551096" NOx_abs="80.929890" fuel_abs="100.567145" electricity_abs="0"/>
    </tripinfo>
    <tripinfo id="a4i_CAV.10" depart="41.08" departLane="bi_0" departPos="4.60" departSpeed="10.00" departDelay="0.65" arrival="219.04" arrivalLane="ci_0" arrivalPos="300.00" arrivalSpeed="15.02" duration="177.96" routeLength="2595.60" waitingTime="0.00" waitingCount="0" stopTime="0.00" timeLoss="4.92" rerouteNo="0" devices="tripinfo_a4i_CAV.10 emissions_a4i_CAV.10" vType="CAV" speedFactor="0.45" vaporized="">
        <emissions CO_abs="1354.061888" CO2_abs="229921.735741" HC_abs="9.851174" PMx_abs="2.618584" NOx_abs="80.546469" fuel_abs="98.833991" electricity_abs="0"/>
    </tripinfo>
    <tripinfo id="a4i_HV.8" depart="44.74" departLane="bi_0" departPos="4.60" departSpeed="10.00" departDelay="0.00" arrival="220.97" arrivalLane="ci_0" arrivalPos="300.00" arrivalSpeed="14.99" duration="176.23" routeLength="2595.60" waitingTime="0.00" waitingCount="0" stopTime="0.00" timeLoss="3.19" rerouteNo="0" devices="tripinfo_a4i_HV.8 emissions_a4i_HV.8" vType="HV" speedFactor="1.16" vaporized="">
        <emissions CO_abs="2651.341966" CO2_abs="382679.086921" HC_abs="20.643865" PMx_abs="5.433552" NOx_abs="142.437365" fuel_abs="164.497132" electricity_abs="0"/>
    </tripinfo>
    <tripinfo id="a4i_HV.9" depart="46.04" departLane="bi_0" departPos="4.60" departSpeed="10.00" departDelay="0.67" arrival="223.56" arrivalLane="ci_0" arrivalPos="300.00" arrivalSpeed="15.01" duration="177.52" routeLength="2595.60" waitingTime="0.00" waitingCount="0" stopTime="0.00" timeLoss="4.48" rerouteNo="0" devices="tripinfo_a4i_HV.9 emissions_a4i_HV.9" vType="HV" speedFactor="0.45" vaporized="">
        <emissions CO_abs="1025.188663" CO2_abs="355250.664171" HC_abs="8.536649" PMx_abs="3.040288" NOx_abs="115.605276" fuel_abs="152.708340" electricity_abs="0"/>
    </tripinfo>
    <tripinfo id="a4i_CAV.11" depart="49.29" departLane="bi_0" departPos="4.60" departSpeed="10.00" departDelay="0.00" arrival="225.98" arrivalLane="ci_0" arrivalPos="300.00" arrivalSpeed="15.01" duration="176.69" routeLength="2595.60" waitingTime="0.00" waitingCount="0" stopTime="0.00" timeLoss="3.66" rerouteNo="0" devices="tripinfo_a4i_CAV.11 emissions_a4i_CAV.11" vType="CAV" speedFactor="0.45" vaporized="">
        <emissions CO_abs="946.209204" CO2_abs="271991.564784" HC_abs="7.722444" PMx_abs="2.527628" NOx_abs="90.209116" fuel_abs="116.918386" electricity_abs="0"/>
    </tripinfo>
    <tripinfo id="a4i_CAV.12" depart="50.59" departLane="bi_0" departPos="4.60" departSpeed="10.00" departDelay="0.19" arrival="228.44" arrivalLane="ci_0" arrivalPos="300.00" arrivalSpeed="15.01" duration="177.85" routeLength="2595.60" waitingTime="0.00" waitingCount="0" stopTime="0.00" timeLoss="4.81" rerouteNo="0" devices="tripinfo_a4i_CAV.12 emissions_a4i_CAV.12" vType="CAV" speedFactor="0.45" vaporized="">
        <emissions CO_abs="1202.298180" CO2_abs="244540.740991" HC_abs="9.067449" PMx_abs="2.574234" NOx_abs="83.843940" fuel_abs="105.118216" electricity_abs="0"/>
    </tripinfo>
    <tripinfo id="a4i_CAV.13" depart="52.30" departLane="bi_0" departPos="4.60" departSpeed="10.00" departDelay="0.00" arrival="230.92" arrivalLane="ci_0" arrivalPos="300.00" arrivalSpeed="15.01" duration="178.62" routeLength="2595.60" waitingTime="0.00" waitingCount="0" stopTime="0.00" timeLoss="5.59" rerouteNo="0" devices="tripinfo_a4i_CAV.13 emissions_a4i_CAV.13" vType="CAV" speedFactor="0.45" vaporized="">
        <emissions CO_abs="1251.809241" CO2_abs="234203.609054" HC_abs="9.341860" PMx_abs="2.541218" NOx_abs="81.006172" fuel_abs="100.674683" electricity_abs="0"/>
    </tripinfo>
    <tripinfo id="a4i_HV.10" depart="55.42" departLane="bi_0" departPos="4.60" departSpeed="10.00" departDelay="0.00" arrival="233.63" arrivalLane="ci_0" arrivalPos="300.00" arrivalSpeed="15.00" duration="178.21" routeLength="2595.60" waitingTime="0.00" waitingCount="0" stopTime="0.00" timeLoss="5.17" rerouteNo="0" devices="tripinfo_a4i_HV.10 emissions_a4i_HV.10" vType="HV" speedFactor="0.45" vaporized="">
        <emissions CO_abs="1029.906423" CO2_abs="401776.967136" HC_abs="8.508987" PMx_abs="3.253855" NOx_abs="129.053505" fuel_abs="172.708297" electricity_abs="0"/>
    </tripinfo>
    <tripinfo id="a4i_CAV.14" depart="56.72" departLane="bi_0" departPos="4.60" departSpeed="10.00" departDelay="0.45" arrival="235.95" arrivalLane="ci_0" arrivalPos="300.00" arrivalSpeed="15.00" duration="179.23" routeLength="2595.60" waitingTime="0.00" waitingCount="0" stopTime="0.00" timeLoss="6.19" rerouteNo="0" devices="tripinfo_a4i_CAV.14 emissions_a4i_CAV.14" vType="CAV" speedFactor="0.45" vaporized="">
        <emissions CO_abs="1202.767543" CO2_abs="140514.625531" HC_abs="8.647691" PMx_abs="1.968581" NOx_abs="52.758509" fuel_abs="60.401319" electricity_abs="0"/>
    </tripinfo>
    <tripinfo id="a4i_CAV.15" depart="66.72" departLane="bi_0" departPos="4.60" departSpeed="10.00" departDelay="0.00" arrival="238.33" arrivalLane="ci_0" arrivalPos="300.00" arrivalSpeed="15.02" duration="171.61" routeLength="2595.60" waitingTime="0.00" waitingCount="0" stopTime="0.00" timeLoss="-1.43" rerouteNo="0" devices="tripinfo_a4i_CAV.15 emissions_a4i_CAV.15" vType="CAV" speedFactor="0.45" vaporized="">
        <emissions CO_abs="2261.966877" CO2_abs="209495.063044" HC_abs="15.197996" PMx_abs="3.524666" NOx_abs="82.284662" fuel_abs="90.052636" electricity_abs="0"/>
    </tripinfo>
    <tripinfo id="a4i_CAV.16" depart="68.06" departLane="bi_0" departPos="4.60" departSpeed="10.00" departDelay="0.00" arrival="240.74" arrivalLane="ci_0" arrivalPos="300.00" arrivalSpeed="15.02" duration="172.68" routeLength="2595.60" waitingTime="0.00" waitingCount="0" stopTime="0.00" timeLoss="-0.35" rerouteNo="0" devices="tripinfo_a4i_CAV.16 emissions_a4i_CAV.16" vType="CAV" speedFactor="0.45" vaporized="">
        <emissions CO_abs="2171.816800" CO2_abs="207982.138918" HC_abs="14.745219" PMx_abs="3.393911" NOx_abs="80.896399" fuel_abs="89.402409" electricity_abs="0"/>
    </tripinfo>
    <tripinfo id="a4i_HV.11" depart="70.30" departLane="bi_0" departPos="4.60" departSpeed="10.00" departDelay="0.00" arrival="243.90" arrivalLane="ci_0" arrivalPos="300.00" arrivalSpeed="15.00" duration="173.60" routeLength="2595.60" waitingTime="0.00" waitingCount="0" stopTime="0.00" timeLoss="0.56" rerouteNo="0" devices="tripinfo_a4i_HV.11 emissions_a4i_HV.11" vType="HV" speedFactor="1.13" vaporized="">
        <emissions CO_abs="2464.708673" CO2_abs="372597.369122" HC_abs="19.554601" PMx_abs="5.275938" NOx_abs="138.257951" fuel_abs="160.163392" electricity_abs="0"/>
    </tripinfo>
    <tripinfo id="a4i_HV.12" depart="75.48" departLane="bi_0" departPos="4.60" departSpeed="10.00" departDelay="0.00" arrival="248.96" arrivalLane="ci_0" arrivalPos="300.00" arrivalSpeed="15.00" duration="173.48" routeLength="2595.60" waitingTime="0.00" waitingCount="0" stopTime="0.00" timeLoss="0.44" rerouteNo="0" devices="tripinfo_a4i_HV.12 emissions_a4i_HV.12" vType="HV" speedFactor="0.45" vaporized="">
        <emissions CO_abs="602.720257" CO2_abs="400511.632597" HC_abs="5.475414" PMx_abs="2.886460" NOx_abs="125.033079" fuel_abs="172.164502" electricity_abs="0"/>
    </tripinfo>
    <tripinfo id="a4i_CAV.17" depart="76.77" departLane="bi_0" departPos="4.60" departSpeed="10.00" departDelay="0.50" arrival="251.22" arrivalLane="ci_0" arrivalPos="300.00" arrivalSpeed="15.00" duration="174.45" routeLength="2595.60" waitingTime="0.00" waitingCount="0" stopTime="0.00" timeLoss="1.41" rerouteNo="0" devices="tripinfo_a4i_CAV.17 emissions_a4i_CAV.17" vType="CAV" speedFactor="0.45" vaporized="">
        <emissions CO_abs="738.702157" CO2_abs="121416.564064" HC_abs="5.993679" PMx_abs="1.576649" NOx_abs="44.124911" fuel_abs="52.191849" electricity_abs="0"/>
    </tripinfo>
    <tripinfo id="a4i_HV.13" depart="78.28" departLane="bi_0" departPos="4.60" departSpeed="10.00" departDelay="1.64" arrival="253.82" arrivalLane="ci_0" arrivalPos="300.00" arrivalSpeed="15.02" duration="175.54" routeLength="2595.60" waitingTime="0.00" waitingCount="0" stopTime="0.00" timeLoss="2.50" rerouteNo="0" devices="tripinfo_a4i_HV.13 emissions_a4i_HV.13" vType="HV" speedFactor="0.45" vaporized="">
        <emissions CO_abs="881.293165" CO2_abs="402770.139306" HC_abs="7.709618" PMx_abs="3.194826" NOx_abs="128.518138" fuel_abs="173.135216" electricity_abs="0"/>
    </tripinfo>
    <tripinfo id="a4i_CAV.18" depart="80.17" departLane="bi_0" departPos="4.60" departSpeed="10.00" departDelay="2.63" arrival="256.21" arrivalLane="ci_0" arrivalPos="300.00" arrivalSpeed="15.01" duration="176.04" routeLength="2595.60" waitingTime="0.00" waitingCount="0" stopTime="0.00" timeLoss="3.00" rerouteNo="0" devices="tripinfo_a4i_CAV.18 emissions_a4i_CAV.18" vType="CAV" speedFactor="0.45" vaporized="">
        <emissions CO_abs="1006.894742" CO2_abs="133413.477480" HC_abs="7.585582" PMx_abs="1.839116" NOx_abs="49.558970" fuel_abs="57.348798" electricity_abs="0"/>
    </tripinfo>
    <tripinfo id="a4i_HV.14" depart="82.10" departLane="bi_0" departPos="4.60" departSpeed="10.00" departDelay="4.16" arrival="258.87" arrivalLane="ci_0" arrivalPos="300.00" arrivalSpeed="15.01" duration="176.77" routeLength="2595.60" waitingTime="0.00" waitingCount="0" stopTime="0.00" timeLoss="3.73" rerouteNo="0" devices="tripinfo_a4i_HV.14 emissions_a4i_HV.14" vType="HV" speedFactor="0.45" vaporized="">
        <emissions CO_abs="1026.067128" CO2_abs="404142.413787" HC_abs="8.518559" PMx_abs="3.287293" NOx_abs="129.775557" fuel_abs="173.725094" electricity_abs="0"/>
    </tripinfo>
    <tripinfo id="a4i_CAV.19" depart="84.32" departLane="bi_0" departPos="4.60" departSpeed="10.00" departDelay="3.39" arrival="261.28" arrivalLane="ci_0" arrivalPos="300.00" arrivalSpeed="15.01" duration="176.96" routeLength="2595.60" waitingTime="0.00" waitingCount="0" stopTime="0.00" timeLoss="3.92" rerouteNo="0" devices="tripinfo_a4i_CAV.19 emissions_a4i_CAV.19" vType="CAV" speedFactor="0.45" vaporized="">
        <emissions CO_abs="1129.203979" CO2_abs="148301.008140" HC_abs="8.448513" PMx_abs="2.011625" NOx_abs="54.875616" fuel_abs="63.748371" electricity_abs="0"/>
    </tripinfo>
    <tripinfo id="a4i_HV.15" depart="86.45" departLane="bi_0" departPos="4.60" departSpeed="10.00" departDelay="4.52" arrival="263.94" arrivalLane="ci_0" arrivalPos="300.00" arrivalSpeed="15.01" duration="177.49" routeLength="2595.60" waitingTime="0.00" waitingCount="0" stopTime="0.00" timeLoss="4.45" rerouteNo="0" devices="tripinfo_a4i_HV.15 emissions_a4i_HV.15" vType="HV" speedFactor="0.45" vaporized="">
        <emissions CO_abs="1144.237406" CO2_abs="388128.990107" HC_abs="9.198689" PMx_abs="3.292258" NOx_abs="125.899336" fuel_abs="166.841488" electricity_abs="0"/>
    </tripinfo>
    <tripinfo id="a4i_CAV.20" depart="88.81" departLane="bi_0" departPos="4.60" departSpeed="10.00" departDelay="6.38" arrival="266.03" arrivalLane="ci_0" arrivalPos="300.00" arrivalSpeed="14.97" duration="177.22" routeLength="2595.60" waitingTime="0.00" waitingCount="0" stopTime="0.00" timeLoss="4.18" rerouteNo="0" devices="tripinfo_a4i_CAV.20 emissions_a4i_CAV.20" vType="CAV" speedFactor="0.45" vaporized="">
        <emissions CO_abs="1192.617644" CO2_abs="151171.134959" HC_abs="8.799010" PMx_abs="2.080040" NOx_abs="56.196745" fuel_abs="64.982100" electricity_abs="0"/>
    </tripinfo>
    <tripinfo id="a4i_CAV.21" depart="91.03" departLane="bi_0" departPos="4.60" departSpeed="10.00" departDelay="5.80" arrival="268.20" arrivalLane="ci_0" arrivalPos="300.00" arrivalSpeed="15.01" duration="177.17" routeLength="2595.60" waitingTime="0.00" waitingCount="0" stopTime="0.00" timeLoss="4.13" rerouteNo="0" devices="tripinfo_a4i_CAV.21 emissions_a4i_CAV.21" vType="CAV" speedFactor="0.45" vaporized="">
        <emissions CO_abs="1304.748026" CO2_abs="157569.985824" HC_abs="9.506278" PMx_abs="2.224417" NOx_abs="59.057004" fuel_abs="67.732659" electricity_abs="0"/>
    </tripinfo>
    <tripinfo id="a4i_CAV.22" depart="93.16" departLane="bi_0" departPos="4.60" departSpeed="10.00" departDelay="7.90" arrival="270.45" arrivalLane="ci_0" arrivalPos="300.00" arrivalSpeed="15.03" duration="177.29" routeLength="2595.60" waitingTime="0.00" waitingCount="0" stopTime="0.00" timeLoss="4.25" rerouteNo="0" devices="tripinfo_a4i_CAV.22 emissions_a4i_CAV.22" vType="CAV" speedFactor="0.45" vaporized="">
        <emissions CO_abs="1397.812981" CO2_abs="161964.774046" HC_abs="10.036157" PMx_abs="2.319362" NOx_abs="60.980318" fuel_abs="69.621785" electricity_abs="0"/>
    </tripinfo>
    <tripinfo id="a4i_CAV.23" depart="95.25" departLane="bi_0" departPos="4.60" departSpeed="10.00" departDelay="5.05" arrival="272.77" arrivalLane="ci_0" arrivalPos="300.00" arrivalSpeed="15.04" duration="177.52" routeLength="2595.60" waitingTime="0.00" waitingCount="0" stopTime="0.00" timeLoss="4.48" rerouteNo="0" devices="tripinfo_a4i_CAV.23 emissions_a4i_CAV.23" vType="CAV" speedFactor="0.45" vaporized="">
        <emissions CO_abs="1623.015359" CO2_abs="174462.944424" HC_abs="11.373487" PMx_abs="2.589696" NOx_abs="66.433812" fuel_abs="74.994166" electricity_abs="0"/>
    </tripinfo>
    <tripinfo id="a4i_CAV.24" depart="97.32" departLane="bi_0" departPos="4.60" departSpeed="10.00" departDelay="3.38" arrival="275.14" arrivalLane="ci_0" arrivalPos="300.00" arrivalSpeed="15.04" duration="177.82" routeLength="2595.60" waitingTime="0.00" waitingCount="0" stopTime="0.00" timeLoss="4.78" rerouteNo="0" devices="tripinfo_a4i_CAV.24 emissions_a4i_CAV.24" vType="CAV" speedFactor="0.45" vaporized="">
        <emissions CO_abs="1696.898710" CO2_abs="179732.451161" HC_abs="11.836038" PMx_abs="2.672175" NOx_abs="68.438984" fuel_abs="77.259320" electricity_abs="0"/>
    </tripinfo>
    <tripinfo id="a4i_CAV.25" depart="99.37" departLane="bi_0" departPos="4.60" departSpeed="10.00" departDelay="5.30" arrival="277.55" arrivalLane="ci_0" arrivalPos="300.00" arrivalSpeed="15.03" duration="178.18" routeLength="2595.60" waitingTime="0.00" waitingCount="0" stopTime="0.00" timeLoss="5.14" rerouteNo="0" devices="tripinfo_a4i_CAV.25 emissions_a4i_CAV.25" vType="CAV" speedFactor="0.45" vaporized="">
        <emissions CO_abs="1913.929343" CO2_abs="193564.769555" HC_abs="13.158158" PMx_abs="2.940426" NOx_abs="74.190561" fuel_abs="83.205216" electricity_abs="0"/>
    </tripinfo>
    <tripinfo id="a4i_CAV.26" depart="101.42" departLane="bi_0" departPos="4.60" departSpeed="10.00" departDelay="6.68" arrival="280.00" arrivalLane="ci_0" arrivalPos="300.00" arrivalSpeed="15.03" duration="178.58" routeLength="2595.60" waitingTime="0.00" waitingCount="0" stopTime="0.00" timeLoss="5.54" rerouteNo="0" devices="tripinfo_a4i_CAV.26 emissions_a4i_CAV.26" vType="CAV" speedFactor="0.45" vaporized="">
        <emissions CO_abs="1939.287403" CO2_abs="197678.703631" HC_abs="13.355487" PMx_abs="2.971926" NOx_abs="75.436751" fuel_abs="84.973667" electricity_abs="0"/>
    </tripinfo>
    <tripinfo id="a4i_HV.16" depart="107.81" departLane="bi_0" departPos="4.60" departSpeed="10.00" departDelay="0.00" arrival="283.45" arrivalLane="ci_0" arrivalPos="300.00" arrivalSpeed="15.00" duration="175.64" routeLength="2595.60" waitingTime="0.00" waitingCount="0" stopTime="0.00" timeLoss="2.60" rerouteNo="0" devices="tripinfo_a4i_HV.16 emissions_a4i_HV.16" vType="HV" speedFactor="0.45" vaporized="">
        <emissions CO_abs="892.827126" CO2_abs="368223.141354" HC_abs="7.491506" PMx_abs="3.016701" NOx_abs="118.320281" fuel_abs="158.284718" electricity_abs="0"/>
    </tripinfo>
    <tripinfo id="a4i_CAV.27" depart="111.17" departLane="bi_0" departPos="4.60" departSpeed="10.00" departDelay="0.00" arrival="285.87" arrivalLane="ci_0" arrivalPos="300.00" arrivalSpeed="15.00" duration="174.70" routeLength="2595.60" waitingTime="0.00" waitingCount="0" stopTime="0.00" timeLoss="1.66" rerouteNo="0" devices="tripinfo_a4i_CAV.27 emissions_a4i_CAV.27" vType="CAV" speedFactor="0.45" vaporized="">
        <emissions CO_abs="1076.259192" CO2_abs="144029.661245" HC_abs="8.051758" PMx_abs="2.017433" NOx_abs="53.560724" fuel_abs="61.912184" electricity_abs="0"/>
    </tripinfo>
    <tripinfo id="a4i_HV.17" depart="114.91" departLane="bi_0" departPos="4.60" departSpeed="10.00" departDelay="0.00" arrival="288.46" arrivalLane="ci_0" arrivalPos="300.00" arrivalSpeed="15.00" duration="173.55" routeLength="2595.60" waitingTime="0.00" waitingCount="0" stopTime="0.00" timeLoss="0.51" rerouteNo="0" devices="tripinfo_a4i_HV.17 emissions_a4i_HV.17" vType="HV" speedFactor="1.09" vaporized="">
        <emissions CO_abs="2430.096519" CO2_abs="367190.005269" HC_abs="19.271254" PMx_abs="5.200893" NOx_abs="136.257981" fuel_abs="157.839000" electricity_abs="0"/>
    </tripinfo>
    <tripinfo id="a4i_HV.18" depart="116.21" departLane="bi_0" departPos="4.60" departSpeed="10.00" departDelay="0.57" arrival="291.06" arrivalLane="ci_0" arrivalPos="300.00" arrivalSpeed="15.00" duration="174.85" routeLength="2595.60" waitingTime="0.00" waitingCount="0" stopTime="0.00" timeLoss="1.81" rerouteNo="0" devices="tripinfo_a4i_HV.18 emissions_a4i_HV.18" vType="HV" speedFactor="0.45" vaporized="">
        <emissions CO_abs="754.338870" CO2_abs="339242.118624" HC_abs="6.401548" PMx_abs="2.686703" NOx_abs="108.196717" fuel_abs="145.826982" electricity_abs="0"/>
    </tripinfo>
    <tripinfo id="a4i_CAV.28" depart="117.92" departLane="bi_0" departPos="4.60" departSpeed="10.00" departDelay="1.87" arrival="293.39" arrivalLane="ci_0" arrivalPos="300.00" arrivalSpeed="15.00" duration="175.47" routeLength="2595.60" waitingTime="0.00" waitingCount="0" stopTime="0.00" timeLoss="2.43" rerouteNo="0" devices="tripinfo_a4i_CAV.28 emissions_a4i_CAV.28" vType="CAV" speedFactor="0.45" vaporized="">
        <emissions CO_abs="795.632034" CO2_abs="307508.491742" HC_abs="6.841779" PMx_abs="2.580348" NOx_abs="99.434462" fuel_abs="132.185858" electricity_abs="0"/>
    </tripinfo>
    <tripinfo id="a4i_HV.19" depart="121.07" departLane="bi_0" departPos="4.60" departSpeed="10.00" departDelay="0.00" arrival="295.33" arrivalLane="ci_0" arrivalPos="300.00" arrivalSpeed="14.99" duration="174.26" routeLength="2595.60" waitingTime="0.00" waitingCount="0" stopTime="0.00" timeLoss="1.22" rerouteNo="0" devices="tripinfo_a4i_HV.19 emissions_a4i_HV.19" vType="HV" speedFactor="0.88" vaporized="">